32
Lattice="3.419951893353394 0 0 0 3.419951893353394 0 0 0 3.419951893353394" Step=0 Time=0.0
Ar 2.9283479765168288 1.4348500945795335 1.431255787987728
Ar -2.8887206591822245 1.434842113564211 1.4335511723233263
Ar 1.433622501359237 2.928908461049785 1.4336418032858957
Ar -4.3818615249183095 2.927986072966628 1.4331692884567846
Ar 2.9279880116237242 -4.381538414136155 1.4336238583663663
Ar -2.890972571431891 -4.381964051877735 1.4375179330731507
Ar 1.4332490935477629 -2.8857540490850986 1.434914223879122
Ar -4.378242031478681 -2.8868931685123878 1.4328978139778914
Ar 1.4337291996922332 1.4338367795141727 2.92715993102628
Ar -4.3828309354599355 1.4372430847663626 2.926337976321973
Ar 2.9291680293013824 2.9247161451772077 2.924447939261836
Ar -2.8867407002576737 2.9281625883823983 2.9265875613583225
Ar 1.4370734680420916 -4.37897696355986 2.924678222044037
Ar -4.379359631428082 -4.381655231179905 2.9248761820424387
Ar 2.924923815975816 -2.88878498291804 2.9258867401424107
Ar -2.887439574836279 -2.886937691030792 2.92380938995968
Ar 2.9273201701448146 1.433664966773493 -4.378493933001925
Ar -2.8908267980210014 1.4339476901624895 -4.380239792931381
Ar 1.4339731661563235 2.9241535876951685 -4.379115755924931
Ar -4.377610932290933 2.9258590402546467 -4.381584884617825
Ar 2.927833471890362 -4.378758311038539 -4.379142130438607
Ar -2.8861149506785027 -4.381467310644718 -4.377328373921204
Ar 1.4352205042768562 -2.8857796876353903 -4.381779594593872
Ar -4.3785896822497135 -2.8863777648331372 -4.382216051896062
Ar 1.4337061973513145 1.4311594780477022 -2.8875795318654847
Ar -4.379935394159519 1.4338496040138367 -2.886408419579729
Ar 2.922686336888709 2.9268766280568697 -2.8853585505030632
Ar -2.885736904383221 2.9242565585412508 -2.8874943857735564
Ar 1.432281772910528 -4.379056765800593 -2.8868210467025293
Ar -4.37933448225725 -4.381070903329487 -2.8852326562317705
Ar 2.927189682416401 -2.8864394236789814 -2.8878441150692193
Ar -2.8896694998642567 -2.8885310490880243 -2.88338947525917
32
Lattice="3.419951893353394 0 0 0 3.419951893353394 0 0 0 3.419951893353394" Step=10 Time=0.005000000000000001
Ar 3.565220776647699 0.8158528368205429 0.7773240771862776
Ar -2.27548015741247 0.8159166492497354 0.8035610720979863
Ar 0.8057963942998033 3.5752262587951367 0.807330696581589
Ar -5.0247634065834905 3.5728989905845343 0.7978858895693047
Ar 3.5698902061273676 -5.020181912166316 0.7966149500318666
Ar -2.282378759209505 -5.040663074996922 0.8283412926275059
Ar 0.7998602158396086 -2.2430457160012702 0.8098818131623065
Ar -4.997135674532982 -2.2504208295161283 0.7903597981045194
Ar 0.8093560132647472 0.8082946730454963 3.5534744500571263
Ar -5.03738761974816 0.8416576243776744 3.5543911794595986
Ar 3.5840054523732103 3.5371257789763813 3.535119784006861
Ar -2.2555585432169316 3.570505336268077 3.551612244405176
Ar 0.8262881207931777 -5.010542839361744 3.542313739297206
Ar -5.013005023670374 -5.023367970589763 3.548217922983953
Ar 3.5504918454019814 -2.263869701153626 3.5526914671290015
Ar -2.255546534617268 -2.249334716747392 3.5345915986388987
Ar 3.569204922953412 0.8021541687461711 -4.992145063555202
Ar -2.2858292964527474 0.7931231042448597 -5.018044593411777
Ar 0.7997265500067661 3.532201052680535 -5.004937955525638
Ar -4.989821467929519 3.5554210090958613 -5.02382310228123
Ar 3.5675540207616656 -4.998459133393465 -4.9985555289496295
Ar -2.245388420942412 -5.021424466665003 -4.977846629881085
Ar 0.8201022523161156 -2.2438453590783127 -5.025837138795843
Ar -4.9874134908744665 -2.2566539292435364 -5.025193966907764
Ar 0.800735100040666 0.7713977245038365 -2.2589407511000985
Ar -5.012900141419468 0.8062568840480828 -2.2458911427956676
Ar 3.516437946053171 3.560389996294437 -2.2324743417861965
Ar -2.238699999816325 3.5338686152730023 -2.2571249734737484
Ar 0.7910504899758191 -4.992788096338336 -2.2580589399031643
Ar -5.007141789283404 -5.017793591094203 -2.242222005557731
Ar 3.5600597631116697 -2.2478031093381334 -2.2608520426796557
Ar -2.2830026190604458 -2.2677691321233002 -2.217436673537833
32
Lattice="3.419951893353394 0 0 0 3.419951893353394 0 0 0 3.419951893353394" Step=20 Time=0.010000000000000005
Ar 4.213306808570466 0.18386681658663137 0.1116993748715493
Ar -1.6490159085457792 0.18403532811447193 0.16093279636977748
Ar 0.16585139552364503 4.233452838891419 0.16858577115158796
Ar -5.679203170709747 4.229644870817545 0.1503933008202355
Ar 4.22334636393729 -5.6697227115381565 0.14713093655014076
Ar -1.6588435372949248 -5.712615797727171 0.20368793553205644
Ar 0.15399693365277592 -1.5883897710001156 0.17180462219952228
Ar -5.629870083898231 -1.6014151180432283 0.13527732831358905
Ar 0.17241267428516258 0.17038537195625877 4.191866857887115
Ar -5.70420741522734 0.23209179113242184 4.195521545373345
Ar 4.251068274094395 4.163236866821268 4.15990104280022
Ar -1.611973112130216 4.22549658932764 4.1892206201690145
Ar 0.20035086885076364 -5.65675462857171 4.174497911131422
Ar -5.660528964046234 -5.676672692402176 4.1855158911305095
Ar 4.190723754401681 -1.624542527370016 4.193137557792258
Ar -1.610358005950318 -1.5988592043936998 4.159573180212287
Ar 4.224273584245727 0.15748105877076263 -5.618835389357899
Ar -1.6659976889654087 0.13814131880448421 -5.669403068361066
Ar 0.15193467739166808 4.1540379618327465 -5.6447013828823955
Ar -5.6161747276274 4.198641732485482 -5.6781299415103454
Ar 4.219933030032231 -5.632310005707923 -5.631443535327582
Ar -1.5915044229444815 -5.673849146587536 -5.592173231056849
Ar 0.19150652507721977 -1.5895351770458064 -5.682272161006011
Ar -5.609103608743057 -1.6147059679883429 -5.680424994081238
Ar 0.15459205986478397 0.09932305276001124 -1.6175517313456695
Ar -5.658470133205348 0.1665431217260979 -1.5933326412028765
Ar 4.124205093080948 4.206500607389095 -1.567246209988212
Ar -1.5789109000138337 4.157179367116197 -1.6136684659677665
Ar 0.13708273876509447 -5.619146357044079 -1.6165893510128293
Ar -5.6484844406408365 -5.666888231389636 -1.5881783879221338
Ar 4.205383698269855 -1.5966959183346665 -1.6206883128842229
Ar -1.6629952349036383 -1.6336283141913572 -1.539780743200621
32
Lattice="3.419951893353394 0 0 0 3.419951893353394 0 0 0 3.419951893353394" Step=30 Time=0.01500000000000001
Ar 4.02062524407634 0.340372045446357 0.3398513423490755
Ar -1.7327091792440938 0.4021527520439952 0.2933678472601594
Ar 0.44963763123865635 4.085454571841433 0.3478186725910569
Ar -5.494719530348352 3.950733686317149 0.3378066342573465
Ar 4.018755854847567 -5.3668718056794456 0.3933800655859122
Ar -1.8830149236898883 -5.602909397525728 0.31429077795779425
Ar 0.2942418105694232 -1.7498359830496983 0.4463822841678446
Ar -5.509651533121115 -1.7536542850485297 0.3160346035348419
Ar 0.2859031618694265 0.42435725682180914 4.038908321660547
Ar -5.588279968166425 0.4122624569886665 4.003510795263514
Ar 4.0560930214118285 4.0103090758827715 4.073046469237688
Ar -1.8319594232879342 4.10342948829652 4.008234703612904
Ar 0.34593752625904595 -5.525663425259318 4.137478812025279
Ar -5.466251143349648 -5.42350646246967 3.974209958510888
Ar 4.046774646410777 -1.7392634586198752 4.0764712117997455
Ar -1.714647611540128 -1.7969920826045649 3.957743026376166
Ar 4.032780515585408 0.23651420814967739 -5.36517203536309
Ar -1.8036433241840717 0.2656391468774167 -5.526992940201644
Ar 0.33775258720353135 3.9439495060677876 -5.5484145578391075
Ar -5.434503149264994 4.036259058634739 -5.487892935030808
Ar 4.08349588500329 -5.587746382355577 -5.5482397064810485
Ar -1.679829337049767 -5.494104118008083 -5.455229759272505
Ar 0.3193849963612996 -1.7612323228040687 -5.513527988699484
Ar -5.382904446366556 -1.7326562590092462 -5.625782630448908
Ar 0.2546380263654029 0.2474338968458186 -1.8672577732905493
Ar -5.425218695170294 0.364864322686965 -1.8522980915673646
Ar 3.9996722650122463 4.072405923915744 -1.724201938103116
Ar -1.6940698968030068 3.9644671264263973 -1.7892179437394231
Ar 0.18233587415009428 -5.404475702029945 -1.7097237439045345
Ar -5.537605618998653 -5.552761252155603 -1.842921567219234
Ar 4.059606801567613 -1.7713979920698533 -1.7979165017592003
Ar -1.8643009421501093 -1.8532064693571306 -1.6594182880738386
32
Lattice="3.419951893353394 0 0 0 3.419951893353394 0 0 0 3.419951893353394" Step=40 Time=0.020000000000000014
Ar 3.3944123646057274 0.9222598962977087 1.0211794005912114
Ar -2.2211550826941733 1.09730908578078 0.8604911317240945
Ar 1.2335199406746906 3.4954776908272747 0.979038306574877
Ar -4.890796543227598 3.2190523952143195 0.9568850282078506
Ar 3.4030335394487823 -4.60216598821786 1.0869523599097854
Ar -2.592826716827847 -5.062317904348609 0.8640713129305434
Ar 0.866656596789664 -2.3478581155745735 1.1998430460526905
Ar -4.970737374307895 -2.3322516992241193 0.9457710217519677
Ar 0.8311097349061801 1.1747718797680422 3.4391010925600143
Ar -5.029051344447999 1.067380683488353 3.3369892709007254
Ar 3.388321936071043 3.406441671211803 3.5581719881528855
Ar -2.554108032685418 3.5272832732997284 3.35508510821626
Ar 0.9671902466232528 -4.922535890864297 3.6743587792568944
Ar -4.807510410283968 -4.689970959947779 3.295728394360581
Ar 3.4278049626716043 -2.3052804443940276 3.5049717733831747
Ar -2.243835201871646 -2.4753195915270747 3.2815092093091422
Ar 3.365764589735534 0.7381793530048296 -4.607753678940177
Ar -2.391337309515886 0.8446131602110034 -4.9249812363344345
Ar 0.9992324441392066 3.23348833446947 -5.016120974104842
Ar -4.7782482918369125 3.4204677168836244 -4.836974302872284
Ar 3.4798131996095165 -5.11898197775866 -5.030084494507502
Ar -2.2179895468467135 -4.831412403321966 -4.8564191988179815
Ar 0.8904812497042667 -2.400954488648932 -4.882200616269511
Ar -4.649629898845721 -2.297372930328474 -5.145480928556225
Ar 0.7740975458910241 0.8259466650610127 -2.6018027620063022
Ar -4.75021643031911 0.997178965290601 -2.5681176056882644
Ar 3.464563318774381 3.522564687810672 -2.304936798023317
Ar -2.242071618599176 3.292424471075367 -2.4239313471011292
Ar 0.6462331955730999 -4.69889810139371 -2.2352973351826413
Ar -5.023606588515983 -5.032110457550167 -2.5533112828751685
Ar 3.486673155765832 -2.3797733995356873 -2.4197632509283653
Ar -2.511460504960849 -2.543308451861746 -2.2086442864776443
32
Lattice="3.419951893353394 0 0 0 3.419951893353394 0 0 0 3.419951893353394" Step=50 Time=0.02500000000000002
Ar 2.907831358769453 1.3230137055265332 1.6332721450593244
Ar -2.5977585156302747 1.684924827033837 1.3597595917161807
Ar 1.855217707323435 3.1234172167270784 1.3883344090097762
Ar -4.449308068055482 2.7403046385992833 1.1952410874587853
Ar 2.9272544763433 -4.067246880658018 1.572385444394883
Ar -3.169256585224856 -4.624929633193608 1.2351180304712772
Ar 1.243793943235344 -2.8220280033716474 1.8539759326649712
Ar -4.504442935494866 -2.7275262183110844 1.396919890963971
Ar 1.192768130034459 1.7692790157926659 2.947173904729384
Ar -4.56652761251391 1.4430041623496086 2.956557046069272
Ar 2.925845263035468 2.917996692444357 3.2213647888724446
Ar -3.1279525473202967 3.084380874829014 2.8677586675466302
Ar 1.529723400858409 -4.4000744409678365 3.2828604499896157
Ar -4.371539032896337 -4.165307516917813 2.9234499379545174
Ar 2.9242066870439922 -2.689801771411076 3.1586266912903214
Ar -2.610178919023052 -3.025412055078043 2.6610723723245764
Ar 2.9720132872186573 1.1326550724857596 -3.982862735281707
Ar -2.805109103008728 1.3074413615646707 -4.518182164103714
Ar 1.6041956978837142 2.675305091769633 -4.61511169670625
Ar -4.224311777053697 3.0268482531359227 -4.382503240608712
Ar 2.901174741594297 -4.679530196084025 -4.533983353403443
Ar -2.6616275308248083 -4.276618563945062 -4.329530669246072
Ar 1.4138302827771232 -2.971698352228993 -4.3572249478216
Ar -3.991835188389519 -2.78461285164268 -4.714132139902508
Ar 1.0464395728504572 1.319534994691131 -3.117157340827308
Ar -4.306925004847624 1.39336878918295 -3.0091073879503623
Ar 2.960073313980281 3.016908274987516 -2.840389185858373
Ar -2.6346986744720824 2.7523111908042335 -2.9393504295976474
Ar 1.069710827898394 -4.06536878060571 -2.6839286642233047
Ar -4.574699492147656 -4.563396871967848 -3.235339769978925
Ar 2.9805259931045294 -2.953638742146649 -2.990136986284473
Ar -3.1141065718512086 -3.1491761581971853 -2.6606025535246287
32
Lattice="3.419951893353394 0 0 0 3.419951893353394 0 0 0 3.419951893353394" Step=60 Time=0.030000000000000023
Ar 3.2538152867689343 0.5971801658453078 1.8100429638243705
Ar -2.156827780768813 1.4593171795812252 1.3313221229059686
Ar 1.7336336790876588 3.9883809976723295 0.5786052249701269
Ar -4.9724540856743245 3.1921818532647603 -0.06982923657854
Ar 3.344151639856501 -4.6807457298419015 0.8620913228069632
Ar -3.17407075135219 -4.927594977659578 0.5801268912359897
Ar 0.3398001450595823 -2.3921817085502064 1.764207130246819
Ar -4.5184992354944296 -2.131873673944792 0.9284813129587746
Ar 0.3087790415317161 1.559407482202174 3.061248644486849
Ar -4.612255088464872 0.6923403619326319 3.560780727335455
Ar 3.6196006018202893 3.120122414526905 3.9280549368668685
Ar -3.0457445673668064 3.649445341796458 3.430028023979086
Ar 1.661157353969017 -4.7247223421658395 3.6094425558612833
Ar -5.09060327818606 -4.661500540015794 4.111729388645133
Ar 3.2462003466865643 -1.9870080027347197 4.022859947414362
Ar -1.916728195650298 -2.8066843070140237 2.43156582071604
Ar 3.962944996424721 0.5538442751679304 -3.9611947484299717
Ar -2.3616053594602513 0.9893020084542911 -5.235434272209213
Ar 1.7586199378316998 3.054507653355678 -5.385448561251451
Ar -4.335428289958637 3.760990327427048 -4.925029423777856
Ar 2.6427824882962128 -4.999356722322985 -4.408778711719881
Ar -1.8505115763240647 -4.944453223195824 -4.5195346102824665
Ar 1.1334094761999423 -2.558803165437178 -5.329035110335151
Ar -4.10796642207908 -2.2649834400864637 -4.913029633582949
Ar 0.08759803087979767 1.2802817355041032 -2.5328150177748636
Ar -5.043885686645572 0.6635848808342656 -2.199267678998561
Ar 2.75397373726105 3.083324951693737 -2.700149180044034
Ar -2.0451324616509736 2.993932299847847 -2.5823522233243335
Ar 0.875440182833703 -4.24014375124037 -2.1065793921800062
Ar -5.075518885684416 -4.829770401458928 -3.8070003364972527
Ar 3.578830427043207 -2.9416913876164363 -2.719007793671719
Ar -3.249178581592894 -2.802303430624733 -1.8717739583989321
32
Lattice="3.419951893353394 0 0 0 3.419951893353394 0 0 0 3.419951893353394" Step=70 Time=0.035000000000000024
Ar 3.6341502513378603 -0.16378374327764447 1.942629280857405
Ar -1.7045381099526435 1.165356653517698 1.206462500866807
Ar 1.5945399970423844 4.864348483078301 -0.2455898114482253
Ar -5.5230605370019665 3.655220894469411 -1.3299619279148476
Ar 3.803664897545045 -5.2957602722870645 0.11470750220181833
Ar -3.1696865511832866 -5.309934130541734 -0.11503162640926078
Ar 0.22031793085646165 -1.6744597091182019 1.2993238960639155
Ar -4.621410124546774 -1.4780845244132927 0.4853663921046682
Ar -0.581504800008512 1.338195010364053 3.2435291556194534
Ar -4.689474584201556 -0.07869130099121832 4.164035311722855
Ar 4.3596501861695 3.3536118912822817 4.6412745449431165
Ar -2.95067289082507 4.289847451503243 4.041593490381987
Ar 1.7469232532596886 -5.147604345587323 4.008959035514598
Ar 5.804880466881005 -5.162411204398226 5.2688204748430065
Ar 3.6255187597043674 -1.2394110258920321 4.896508248877631
Ar -1.9867637998088805 -2.776464758894549 2.584811833229239
Ar 4.977084893075382 -0.13126064495544124 -3.998179014874217
Ar -1.9037351311945043 0.6264891429137887 5.643098675438276
Ar 1.8009863355236788 3.458584783681299 5.344554393063973
Ar -4.487431403446216 4.504816027780614 -5.487875332989421
Ar 2.465299845593029 -5.582237621482849 -4.421455347192607
Ar -0.9244541862677353 -5.693943586851555 -4.765808284333586
Ar 0.7017242626070875 -1.990124526323827 5.198261957991639
Ar -4.27699391040558 -1.6259718300886679 -5.207075123344591
Ar -0.799314071140051 1.0968173773126377 -1.9228909390975608
Ar -5.782292616862552 -0.07218218030217713 -1.378879361185119
Ar 2.618196979776607 3.262130212894369 -2.3849650151535453
Ar -1.507529847179738 3.3827565441675125 -2.177861469637493
Ar 0.5662833152602237 -4.492782397102907 -1.4262840152102867
Ar -5.712132601843771 -5.20982868090836 -4.305190513996302
Ar 4.356902884520558 -2.743273118020397 -2.2776752326059766
Ar -3.282965530685578 -2.385637746330823 -1.0113772409258177
32
Lattice="3.419951893353394 0 0 0 3.419951893353394 0 0 0 3.419951893353394" Step=80 Time=0.04000000000000003
Ar 4.00435022706541 -0.9036207633831329 2.067449797766149
Ar -1.4213987686238299 0.8611359672643927 0.8402945804579127
Ar 1.5861364571295355 5.408256134689385 -0.9578699857328804
Ar 5.570675093301767 4.0963284311483745 -2.553319329900625
Ar 4.305305688207937 5.763025555367645 -0.6041272975661213
Ar -3.165509615533923 -5.691997215641146 -0.7893327235958236
Ar 0.5914225900624643 -0.8200306546348151 0.6381041026680292
Ar -4.842877879363099 -0.724115645979672 0.7438261504425445
Ar -1.1746810979804154 1.3041885313099535 3.3669639557816886
Ar -4.856193765041465 -0.6374924999052959 4.326819681953248
Ar 5.131023254202637 3.5625918879373435 5.308800152562771
Ar -2.702228202224236 4.895247173043937 4.4792089111069275
Ar 1.830291340424077 -5.530149640680115 4.38676625392308
Ar 4.86516785602219 -5.467458920860088 4.988385687801259
Ar 3.998342888267418 -0.5116786228252493 5.740949049023494
Ar -2.5376011616816987 -2.906809141134949 2.9425441002494113
Ar -5.803310584707767 -0.7347156849789473 -3.96177352639263
Ar -1.5804754787201025 0.12103276720008971 5.254066115050523
Ar 1.7788534655406854 3.821279708421324 4.495289187151132
Ar -4.59566543623333 5.0434406616997824 5.771693612305513
Ar 2.3047452527547887 5.480666543825992 -4.426925811883329
Ar -0.03383413045056825 5.202371951168259 -5.007667558696661
Ar 0.27147015491857407 -1.4402911895104196 4.128151996249134
Ar -4.217352578919834 -1.2557143177024734 -5.171663195459662
Ar -1.546358964865694 0.6622119396349496 -1.343973840489423
Ar 4.891173731603735 -0.5969697063194018 -0.8133616440538702
Ar 2.499073876110898 3.410674801699767 -2.100403528377784
Ar -1.0981063613648478 4.014340892555583 -1.8085634237721342
Ar 0.06876157962701329 -4.434070392726928 -0.8373516282965164
Ar 5.338019922733458 -5.532081061393231 -3.4057250755895416
Ar 5.104276902753925 -2.6002894589010856 -1.8652830997454735
Ar -2.9356598176141553 -2.2314715929882953 -0.576298790137263
32
Lattice="3.419951893353394 0 0 0 3.419951893353394 0 0 0 3.419951893353394" Step=90 Time=0.04500000000000003
Ar 4.351079708831318 -1.6304756962149092 2.205149864634892
Ar -1.1777315265685775 0.6482155656430325 0.9713688300941317
Ar 1.825397256769071 5.641720611063155 -1.483082566760524
Ar 5.18117655039498 3.601031441402952 -3.534870462882729
Ar 4.79049052194602 5.128437347117096 -1.037741211366233
Ar -3.1826750705951716 5.574332247636133 -1.4415026643617634
Ar 1.0500233460040984 -0.05136096158608759 -0.025185190579136957
Ar -4.799193961663117 -0.026834957161552705 1.4186021471281764
Ar -1.5047774382259107 1.7356574830954268 2.9599502359689316
Ar -5.205272199391037 -0.8757785541485278 3.6945913386664024
Ar 5.684078959758101 3.500302371041627 -5.711049911302897
Ar -2.079270371122209 5.450605189839536 4.61623840272212
Ar 1.81217713287193 -5.40048401428071 4.737374290908549
Ar 3.8958148728412407 -5.5988334604527665 4.406244675157417
Ar 4.306446003753626 0.2084530678696216 -5.115233973469016
Ar -3.0754714132339718 -3.0360590887614984 3.2910673669605135
Ar -5.791318244619789 -1.0001609140787957 -3.2465653966767
Ar -1.4895442361891438 -0.7174585120304341 5.644157375976946
Ar 1.7389269388610713 3.682635435603803 3.641339384422419
Ar -4.705391145693454 5.68916523022959 5.777218492073261
Ar 2.5568729622506283 4.998893322994346 -4.283894944990917
Ar 0.4113876327290744 4.417615398045843 -5.355800605423891
Ar -0.09907571336473239 -0.9420442675224746 3.0505346743421815
Ar -3.1438169072246613 -1.5283300568729004 -4.973492435397282
Ar -2.357084133752352 0.1588387351089596 -1.4851247635967457
Ar 3.5737322295792473 -0.6693082653240258 -0.455761953805547
Ar 2.471615154848486 3.3088805878170593 -1.926101125175881
Ar -0.6924141053520215 4.625836389642274 -1.4577926636293355
Ar -0.7935358758983642 -3.8506761110899563 -0.3257986920595724
Ar 4.713262346887685 -4.823406306268668 -2.7282377320610642
Ar -5.7673684692382805 -2.801252821611495 -1.5922020398974785
Ar -2.498540806193776 -2.1624835619425706 -0.23439874561922172
32
Lattice="3.419951893353394 0 0 0 3.419951893353394 0 0 0 3.419951893353394" Step=100 Time=0.05000000000000004
Ar 4.552830242443952 -2.418902530295559 2.271613238916224
Ar -1.134332147907494 0.5864679140384569 0.6680106482144499
Ar 2.018835609020139 -5.481690712188948 -1.9122353358776214
Ar 4.592646400403322 2.8535133837589206 -3.6540740442172135
Ar 5.22927975434402 4.244469017529752 -0.9897626083256604
Ar -3.2592741078411085 5.2447425162081585 -2.0768229871591677
Ar 1.085171745801956 0.9408575047174472 -0.7301099245509539
Ar -4.6873235792997985 0.7847328001347481 1.8546908705743914
Ar -1.8825251562348977 2.367305017878195 2.9336107201283146
Ar -5.485939230558232 -1.1523035369356063 3.3803753656952553
Ar -5.2668511325521985 3.2240307607951615 5.686180911497318
Ar -1.4256578031354585 -5.638378044150588 4.718963528915004
Ar 1.009179950230769 -4.989127393507946 5.190967315297857
Ar 3.75523778762795 -5.785030696164808 3.71538561904387
Ar 4.561996706992743 0.911429804013721 -4.419668471152564
Ar -3.5917906553681944 -3.1711036611602244 3.629224186770777
Ar -5.811804028723768 -1.1054715032534794 -2.6032953847600067
Ar -0.635387448660931 -1.1454040250125035 5.566274555218761
Ar 1.695928969426362 3.364578327685254 2.7613125075786593
Ar -4.7010476206294385 -5.099533280898615 -5.808572997060292
Ar 3.1391309277427895 4.631535278174256 -4.0253083611366085
Ar 0.46245293383457964 3.5467769093312325 -5.804168966490776
Ar -0.2658528132045798 -0.7282128301471092 2.287944575464344
Ar -2.819561543773058 -2.2005573911330663 -4.316044663519061
Ar -3.2056951895221797 -0.2876360195908678 -1.8811608976210659
Ar 2.814457513437548 -0.9916876948632937 -0.10395402526168214
Ar 2.512074193577261 2.933963299388342 -1.8073028170106504
Ar -0.2984443938286976 5.171794332200044 -1.1140353334041961
Ar -1.169670650505975 -3.8221488172034905 0.16066621676159404
Ar 4.075143838313603 -3.659832028052878 -2.582483546571414
Ar -4.950089118336036 -3.1330667818912357 -1.1560407241143194
Ar -2.5409563905164756 -1.6239463568050116 0.1598208281564392
32
Lattice="3.419951893353394 0 0 0 3.419951893353394 0 0 0 3.419951893353394" Step=110 Time=0.05500000000000004
Ar 4.463127040422734 -3.402902017278695 2.1387607626411724
Ar -1.4786779581625569 1.1184164251464925 -0.3187250211814042
Ar 2.240155921288447 -4.95076344784452 -2.319718048381562
Ar 4.329805490168019 2.8107123428154437 -2.9192572958089427
Ar 5.672094871441154 3.3896171426655197 -0.9179178796872095
Ar -3.348440259829387 4.926182404394497 -2.700271728375808
Ar 0.4433993730997009 2.0550691126637988 -1.402768127358218
Ar -4.526766470678708 1.7012689291533092 2.1342864500800096
Ar -2.261627224697896 3.022466678846414 2.957111506227843
Ar -5.560765342103755 -1.2957787285026683 3.412772310697414
Ar -4.471770191610747 2.9596993744062208 5.164700914956038
Ar -1.3064732725501236 -5.286381213580027 4.635757997693158
Ar 0.6753825129910553 -4.389391722243872 -5.795588679907408
Ar 3.6921501137547983 5.649440414966945 3.020759590023699
Ar 4.856240991144505 0.340808006236675 -4.272950928659132
Ar -4.04811858458223 -3.3198957877319843 3.9327732133317683
Ar 5.613247991767926 -1.166160575322394 -2.044251555718217
Ar 0.3471159816691837 -1.4894561771663013 5.39037313340149
Ar 1.6539365456986919 3.0509619601975295 1.8978874546558093
Ar -4.708909216754376 -4.292522801072604 -5.735554170472661
Ar 3.3497364450460374 4.840429360767027 -3.9813443207546837
Ar 0.5012750288914272 2.682081378246183 5.391314068441375
Ar -0.05286438743565477 -1.0824626149994638 2.241595808624521
Ar -2.650376643608266 -2.9364967235556554 -3.578344764609164
Ar -3.8923461652754647 -0.590350746720625 -2.3499022775672245
Ar 2.5689936757061678 -1.6280461981320697 0.27456837897055386
Ar 2.6767633535191755 2.719307753854268 -1.6682090334917987
Ar 0.032236823870412594 5.65286817695634 -0.7613529458048389
Ar -1.2178953428134793 -4.200798897370664 0.6382719589893429
Ar 3.4373123553829967 -2.5251912778137484 -2.4732045633924846
Ar -4.099033553625979 -3.5379827640526145 -0.6382804881049555
Ar -2.928909902133793 -0.8247477679287585 0.6467082805415232
32
Lattice="3.419951893353394 0 0 0 3.419951893353394 0 0 0 3.419951893353394" Step=120 Time=0.060000000000000046
Ar 4.3865645896014245 -4.279300734646152 1.9520063503322844
Ar -2.065677788717255 1.556018958050265 -1.142821516553046
Ar 2.422909431919108 -4.417917629153195 -2.677624281031523
Ar 5.010383951767135 2.6135009489103713 -2.756163895182637
Ar -5.383832586915217 2.599943687752376 -0.6382933242961079
Ar -3.435028618022602 4.615772843839687 -3.3091071547834927
Ar -0.37913914553981914 3.076116853108109 -2.1168479122977852
Ar -4.454840256225434 2.5496940619172324 2.357294651119755
Ar -2.5215339179560714 3.7208906925858463 2.975395512701156
Ar -5.677694034014716 -1.3025018733386564 3.448634257627754
Ar -3.7205487048475288 2.6958864217655014 4.70864730988733
Ar -1.7433163160887621 -5.1512469687852285 4.316511707179784
Ar 0.9031277309245562 -3.6493632470715425 -4.9111595062714155
Ar 3.589011210749013 5.33925477238847 2.3780460826339627
Ar 5.167900769955832 -0.49798002052525087 -4.291249198980569
Ar -4.279478349244499 -3.3785874686313955 3.813191749122377
Ar 4.973757636167939 -1.3377154864567034 -1.3826021054938578
Ar 1.3068995330416537 -1.7729540326056457 5.202552267259462
Ar 1.607944286470319 2.7446380592771864 1.0662592506516662
Ar -4.857090855839215 -3.6944913074398182 -5.226232770518725
Ar 3.333834309872436 5.451994095027134 -4.169814117966255
Ar 0.5392214742258071 1.8385768473325894 4.970475214382753
Ar 0.15788338693857706 -1.4336390518376712 2.2058586278008403
Ar -2.4740042140263787 -3.667586784306783 -2.8694881505716947
Ar -3.9861929902324382 -0.7011757692326195 -2.868436350737561
Ar 2.3276955600185048 -2.244955076642484 0.6486359514908757
Ar 2.488095087448366 2.7016866374167408 -1.0055414592934648
Ar 0.3913039134521246 -5.593869322612387 -0.46831476183338483
Ar -1.3098087950437032 -4.499787709082582 1.178704632837546
Ar 2.7035447941289434 -1.4336095059063916 -2.420445710241559
Ar -3.2853921789478178 -3.94169160327296 -0.1342701835150415
Ar -3.3643353524218047 -0.1334377252255818 1.1661988345405851
32
Lattice="3.419951893353394 0 0 0 3.419951893353394 0 0 0 3.419951893353394" Step=130 Time=0.06500000000000004
Ar 4.5401752789628596 -4.569614618933018 1.648338728720201
Ar -2.850252482330819 1.8153745294111059 -1.8274468849384669
Ar 2.6368350186699896 -3.8310555211771655 -2.80344044259244
Ar 5.6299333456901035 2.406172707049947 -2.8911296875726364
Ar -4.700251782535259 1.8477141557583545 -0.14374094020429898
Ar -3.5229503899049597 4.313466823235816 -3.9046951679094986
Ar -0.9796246153967693 4.242556057776062 -2.9483235170946713
Ar -4.708028943637386 3.2190604849416564 2.354351352482087
Ar -2.3681282104482646 4.66353768617493 2.8594841089534593
Ar 5.750777343915062 -1.1836392705337793 3.4625256233809454
Ar -3.0780922226373995 2.3166050135948493 4.618096400200751
Ar -2.1654497862669824 -5.004248447063004 4.0437566370659725
Ar 0.9969422818707362 -3.0156821817595336 -4.053791978802893
Ar 3.2651437240316588 4.468164962952108 1.875027000033917
Ar 5.421424724691523 -1.2974321115170284 -4.349185943756474
Ar -4.376697271626309 -3.500645798112025 3.5205083445583605
Ar 4.486791942013527 -1.4906475698695987 -0.6371448884487426
Ar 2.2706586303453964 -1.9074430315095507 4.919176070416643
Ar 1.1098142535325746 2.4318131759600443 1.1851437883657463
Ar -5.047535688650299 -3.1812181198302905 -4.53732589912932
Ar 3.3865306259207704 -5.711542937504598 -4.472061172358888
Ar 0.5758768985663731 1.0164608623517033 4.559891781687993
Ar 0.31397492314575903 -1.7533639493991304 2.200431578400092
Ar -2.2870458333277464 -4.381515776162983 -2.2180292919102165
Ar -3.9917440431438598 -0.7921462130177735 -3.3647493657724064
Ar 2.1329172320395453 -2.864399154574806 0.9853401911746887
Ar 2.6921430741238854 2.697867291053727 -1.2186357060252253
Ar 0.8063794111048053 -5.275980545757582 -0.246792502355499
Ar -1.1944994616146136 -4.815002246817015 1.9576523947932687
Ar 1.8112903509597045 -0.38276735732342393 -2.4438729848197815
Ar -2.768932418095165 -4.2576663939148816 0.18978606395105238
Ar -3.788375909968419 0.5215446197137953 1.6808563095062903
32
Lattice="3.419951893353394 0 0 0 3.419951893353394 0 0 0 3.419951893353394" Step=140 Time=0.07000000000000005
Ar 4.739779822700967 -4.772174289110406 1.340944435868766
Ar -3.4707140640837837 2.0542105246487825 -2.5590453866537946
Ar 3.2443152390578818 -3.39553007460345 -2.5052555720332528
Ar -5.468547642588096 2.210714591953683 -3.0607644146078012
Ar -4.244761646723054 1.297981422498718 0.02082040006928337
Ar -3.669864741435229 4.017361166349433 -4.515048110709121
Ar -1.4815873463875964 5.373727133727345 -3.7618078919756623
Ar -5.054695779319141 3.8661199341413943 2.313547667140152
Ar -2.325546901007361 5.032685202905215 2.5375655711461094
Ar 5.521182720360001 -1.019766523943144 3.475088627104958
Ar -2.4482889840026947 1.9029159467093884 4.617404870897699
Ar -2.6831552834216357 -4.538392388119705 4.423658002764846
Ar 0.6471258464566301 -2.20131608646548 -3.552549024349006
Ar 2.919948020937852 3.5386082009773685 1.4003879232943306
Ar 5.004157736625682 -1.3415883165870999 -4.4567285569699475
Ar -4.5159991986598484 -3.619623353824477 3.207817597319718
Ar 4.027371979938846 -1.6369585284862906 0.09284530425315493
Ar 3.2189572190785074 -2.026399808707216 4.626030815786181
Ar 0.4138603665852211 2.1044613740600977 1.675965309875608
Ar -4.733029019876425 -3.478894129768207 -3.8885881498037
Ar 3.4725556614991873 -5.339430195353257 -4.837284958195448
Ar 0.6107399223958364 0.21690763285578338 4.161060369023126
Ar 0.30727041849369224 -1.9650680713317703 2.296599968020361